phonopy:
  version: "2.24.3"
  frequency_unit_conversion_factor: 15.633302
  symmetry_tolerance: 1.00000e-05

space_group:
  type: "P2_1/m"
  number: 11
  Hall_symbol: "-P 2yb"

supercell_matrix:
- [   3,   0,   0 ]
- [   0,   3,   0 ]
- [   0,   0,   3 ]

primitive_cell:
  lattice:
  - [     2.460143060000000,    -0.000002020000000,     0.000000000000000 ] # a
  - [     1.230059280000000,     2.130538840000000,     0.000000000000000 ] # b
  - [     0.000000000000000,     0.000000000000000,     6.723982109999999 ] # c
  points:
  - symbol: C  # 1
    coordinates: [  0.000065709267294,  0.999868230579985,  0.749999999628197 ]
    mass: 12.010700
  - symbol: C  # 2
    coordinates: [  0.333395419026140,  0.333208984567841,  0.749999999628197 ]
    mass: 12.010700
  - symbol: C  # 3
    coordinates: [  0.999934290732706,  0.000131769420015,  0.250000000371803 ]
    mass: 12.010700
  - symbol: C  # 4
    coordinates: [  0.666604574562258,  0.666791020125801,  0.250000000371803 ]
    mass: 12.010700
  reciprocal_lattice: # without 2pi
  - [     0.406480233692779,    -0.234679966496349,     0.000000000000000 ] # a*
  - [     0.000000385390802,     0.469364607287079,     0.000000000000000 ] # b*
  - [     0.000000000000000,     0.000000000000000,     0.148721395096038 ] # c*

unit_cell:
  lattice:
  - [     2.460143060000000,    -0.000002020000000,     0.000000000000000 ] # a
  - [     1.230059280000000,     2.130538840000000,    -0.000000000000000 ] # b
  - [    -0.000000000000000,    -0.000000000000000,     6.723982110000000 ] # c
  points:
  - symbol: C  # 1
    coordinates: [  0.000065709267294, -0.000131769420015,  0.749999999628197 ]
    mass: 12.010700
    reduced_to: 1
  - symbol: C  # 2
    coordinates: [  0.333395419026140,  0.333208984567841,  0.749999999628197 ]
    mass: 12.010700
    reduced_to: 2
  - symbol: C  # 3
    coordinates: [  0.999934290732706,  1.000131769420016,  0.250000000371803 ]
    mass: 12.010700
    reduced_to: 3
  - symbol: C  # 4
    coordinates: [  0.666604574562258,  0.666791020125801,  0.250000000371803 ]
    mass: 12.010700
    reduced_to: 4

supercell:
  lattice:
  - [     7.380429180000000,    -0.000006060000000,     0.000000000000000 ] # a
  - [     3.690177840000000,     6.391616519999999,     0.000000000000000 ] # b
  - [     0.000000000000000,     0.000000000000000,    20.171946329999997 ] # c
  points:
  - symbol: C  # 1
    coordinates: [  0.000021903089098,  0.999956076859995,  0.249999999876065 ]
    mass: 12.010700
    reduced_to: 1
  - symbol: C  # 2
    coordinates: [  0.333355236422431,  0.999956076859995,  0.249999999876065 ]
    mass: 12.010700
    reduced_to: 1
  - symbol: C  # 3
    coordinates: [  0.666688569755765,  0.999956076859995,  0.249999999876065 ]
    mass: 12.010700
    reduced_to: 1
  - symbol: C  # 4
    coordinates: [  0.000021903089098,  0.333289410193328,  0.249999999876065 ]
    mass: 12.010700
    reduced_to: 1
  - symbol: C  # 5
    coordinates: [  0.333355236422431,  0.333289410193328,  0.249999999876065 ]
    mass: 12.010700
    reduced_to: 1
  - symbol: C  # 6
    coordinates: [  0.666688569755765,  0.333289410193328,  0.249999999876065 ]
    mass: 12.010700
    reduced_to: 1
  - symbol: C  # 7
    coordinates: [  0.000021903089098,  0.666622743526661,  0.249999999876065 ]
    mass: 12.010700
    reduced_to: 1
  - symbol: C  # 8
    coordinates: [  0.333355236422431,  0.666622743526661,  0.249999999876065 ]
    mass: 12.010700
    reduced_to: 1
  - symbol: C  # 9
    coordinates: [  0.666688569755765,  0.666622743526661,  0.249999999876065 ]
    mass: 12.010700
    reduced_to: 1
  - symbol: C  # 10
    coordinates: [  0.000021903089098,  0.999956076859995,  0.583333333209399 ]
    mass: 12.010700
    reduced_to: 1
  - symbol: C  # 11
    coordinates: [  0.333355236422431,  0.999956076859995,  0.583333333209399 ]
    mass: 12.010700
    reduced_to: 1
  - symbol: C  # 12
    coordinates: [  0.666688569755765,  0.999956076859995,  0.583333333209399 ]
    mass: 12.010700
    reduced_to: 1
  - symbol: C  # 13
    coordinates: [  0.000021903089098,  0.333289410193328,  0.583333333209399 ]
    mass: 12.010700
    reduced_to: 1
  - symbol: C  # 14
    coordinates: [  0.333355236422431,  0.333289410193328,  0.583333333209399 ]
    mass: 12.010700
    reduced_to: 1
  - symbol: C  # 15
    coordinates: [  0.666688569755765,  0.333289410193328,  0.583333333209399 ]
    mass: 12.010700
    reduced_to: 1
  - symbol: C  # 16
    coordinates: [  0.000021903089098,  0.666622743526661,  0.583333333209399 ]
    mass: 12.010700
    reduced_to: 1
  - symbol: C  # 17
    coordinates: [  0.333355236422431,  0.666622743526661,  0.583333333209399 ]
    mass: 12.010700
    reduced_to: 1
  - symbol: C  # 18
    coordinates: [  0.666688569755765,  0.666622743526661,  0.583333333209399 ]
    mass: 12.010700
    reduced_to: 1
  - symbol: C  # 19
    coordinates: [  0.000021903089098,  0.999956076859995,  0.916666666542732 ]
    mass: 12.010700
    reduced_to: 1
  - symbol: C  # 20
    coordinates: [  0.333355236422431,  0.999956076859995,  0.916666666542732 ]
    mass: 12.010700
    reduced_to: 1
  - symbol: C  # 21
    coordinates: [  0.666688569755765,  0.999956076859995,  0.916666666542732 ]
    mass: 12.010700
    reduced_to: 1
  - symbol: C  # 22
    coordinates: [  0.000021903089098,  0.333289410193328,  0.916666666542732 ]
    mass: 12.010700
    reduced_to: 1
  - symbol: C  # 23
    coordinates: [  0.333355236422431,  0.333289410193328,  0.916666666542732 ]
    mass: 12.010700
    reduced_to: 1
  - symbol: C  # 24
    coordinates: [  0.666688569755765,  0.333289410193328,  0.916666666542732 ]
    mass: 12.010700
    reduced_to: 1
  - symbol: C  # 25
    coordinates: [  0.000021903089098,  0.666622743526661,  0.916666666542732 ]
    mass: 12.010700
    reduced_to: 1
  - symbol: C  # 26
    coordinates: [  0.333355236422431,  0.666622743526661,  0.916666666542732 ]
    mass: 12.010700
    reduced_to: 1
  - symbol: C  # 27
    coordinates: [  0.666688569755765,  0.666622743526661,  0.916666666542732 ]
    mass: 12.010700
    reduced_to: 1
  - symbol: C  # 28
    coordinates: [  0.111131806342047,  0.111069661522614,  0.249999999876065 ]
    mass: 12.010700
    reduced_to: 28
  - symbol: C  # 29
    coordinates: [  0.444465139675380,  0.111069661522614,  0.249999999876065 ]
    mass: 12.010700
    reduced_to: 28
  - symbol: C  # 30
    coordinates: [  0.777798473008713,  0.111069661522614,  0.249999999876065 ]
    mass: 12.010700
    reduced_to: 28
  - symbol: C  # 31
    coordinates: [  0.111131806342047,  0.444402994855947,  0.249999999876065 ]
    mass: 12.010700
    reduced_to: 28
  - symbol: C  # 32
    coordinates: [  0.444465139675380,  0.444402994855947,  0.249999999876065 ]
    mass: 12.010700
    reduced_to: 28
  - symbol: C  # 33
    coordinates: [  0.777798473008713,  0.444402994855947,  0.249999999876065 ]
    mass: 12.010700
    reduced_to: 28
  - symbol: C  # 34
    coordinates: [  0.111131806342047,  0.777736328189280,  0.249999999876065 ]
    mass: 12.010700
    reduced_to: 28
  - symbol: C  # 35
    coordinates: [  0.444465139675380,  0.777736328189280,  0.249999999876065 ]
    mass: 12.010700
    reduced_to: 28
  - symbol: C  # 36
    coordinates: [  0.777798473008713,  0.777736328189280,  0.249999999876065 ]
    mass: 12.010700
    reduced_to: 28
  - symbol: C  # 37
    coordinates: [  0.111131806342047,  0.111069661522614,  0.583333333209399 ]
    mass: 12.010700
    reduced_to: 28
  - symbol: C  # 38
    coordinates: [  0.444465139675380,  0.111069661522614,  0.583333333209399 ]
    mass: 12.010700
    reduced_to: 28
  - symbol: C  # 39
    coordinates: [  0.777798473008713,  0.111069661522614,  0.583333333209399 ]
    mass: 12.010700
    reduced_to: 28
  - symbol: C  # 40
    coordinates: [  0.111131806342047,  0.444402994855947,  0.583333333209399 ]
    mass: 12.010700
    reduced_to: 28
  - symbol: C  # 41
    coordinates: [  0.444465139675380,  0.444402994855947,  0.583333333209399 ]
    mass: 12.010700
    reduced_to: 28
  - symbol: C  # 42
    coordinates: [  0.777798473008713,  0.444402994855947,  0.583333333209399 ]
    mass: 12.010700
    reduced_to: 28
  - symbol: C  # 43
    coordinates: [  0.111131806342047,  0.777736328189280,  0.583333333209399 ]
    mass: 12.010700
    reduced_to: 28
  - symbol: C  # 44
    coordinates: [  0.444465139675380,  0.777736328189280,  0.583333333209399 ]
    mass: 12.010700
    reduced_to: 28
  - symbol: C  # 45
    coordinates: [  0.777798473008713,  0.777736328189280,  0.583333333209399 ]
    mass: 12.010700
    reduced_to: 28
  - symbol: C  # 46
    coordinates: [  0.111131806342047,  0.111069661522614,  0.916666666542732 ]
    mass: 12.010700
    reduced_to: 28
  - symbol: C  # 47
    coordinates: [  0.444465139675380,  0.111069661522614,  0.916666666542732 ]
    mass: 12.010700
    reduced_to: 28
  - symbol: C  # 48
    coordinates: [  0.777798473008713,  0.111069661522614,  0.916666666542732 ]
    mass: 12.010700
    reduced_to: 28
  - symbol: C  # 49
    coordinates: [  0.111131806342047,  0.444402994855947,  0.916666666542732 ]
    mass: 12.010700
    reduced_to: 28
  - symbol: C  # 50
    coordinates: [  0.444465139675380,  0.444402994855947,  0.916666666542732 ]
    mass: 12.010700
    reduced_to: 28
  - symbol: C  # 51
    coordinates: [  0.777798473008713,  0.444402994855947,  0.916666666542732 ]
    mass: 12.010700
    reduced_to: 28
  - symbol: C  # 52
    coordinates: [  0.111131806342047,  0.777736328189280,  0.916666666542732 ]
    mass: 12.010700
    reduced_to: 28
  - symbol: C  # 53
    coordinates: [  0.444465139675380,  0.777736328189280,  0.916666666542732 ]
    mass: 12.010700
    reduced_to: 28
  - symbol: C  # 54
    coordinates: [  0.777798473008713,  0.777736328189280,  0.916666666542732 ]
    mass: 12.010700
    reduced_to: 28
  - symbol: C  # 55
    coordinates: [  0.333311430244235,  0.333377256473338,  0.083333333457268 ]
    mass: 12.010700
    reduced_to: 55
  - symbol: C  # 56
    coordinates: [  0.666644763577569,  0.333377256473338,  0.083333333457268 ]
    mass: 12.010700
    reduced_to: 55
  - symbol: C  # 57
    coordinates: [  0.999978096910902,  0.333377256473338,  0.083333333457268 ]
    mass: 12.010700
    reduced_to: 55
  - symbol: C  # 58
    coordinates: [  0.333311430244235,  0.666710589806672,  0.083333333457268 ]
    mass: 12.010700
    reduced_to: 55
  - symbol: C  # 59
    coordinates: [  0.666644763577569,  0.666710589806672,  0.083333333457268 ]
    mass: 12.010700
    reduced_to: 55
  - symbol: C  # 60
    coordinates: [  0.999978096910902,  0.666710589806672,  0.083333333457268 ]
    mass: 12.010700
    reduced_to: 55
  - symbol: C  # 61
    coordinates: [  0.333311430244235,  0.000043923140005,  0.083333333457268 ]
    mass: 12.010700
    reduced_to: 55
  - symbol: C  # 62
    coordinates: [  0.666644763577569,  0.000043923140005,  0.083333333457268 ]
    mass: 12.010700
    reduced_to: 55
  - symbol: C  # 63
    coordinates: [  0.999978096910902,  0.000043923140005,  0.083333333457268 ]
    mass: 12.010700
    reduced_to: 55
  - symbol: C  # 64
    coordinates: [  0.333311430244235,  0.333377256473338,  0.416666666790601 ]
    mass: 12.010700
    reduced_to: 55
  - symbol: C  # 65
    coordinates: [  0.666644763577569,  0.333377256473338,  0.416666666790601 ]
    mass: 12.010700
    reduced_to: 55
  - symbol: C  # 66
    coordinates: [  0.999978096910902,  0.333377256473338,  0.416666666790601 ]
    mass: 12.010700
    reduced_to: 55
  - symbol: C  # 67
    coordinates: [  0.333311430244235,  0.666710589806672,  0.416666666790601 ]
    mass: 12.010700
    reduced_to: 55
  - symbol: C  # 68
    coordinates: [  0.666644763577569,  0.666710589806672,  0.416666666790601 ]
    mass: 12.010700
    reduced_to: 55
  - symbol: C  # 69
    coordinates: [  0.999978096910902,  0.666710589806672,  0.416666666790601 ]
    mass: 12.010700
    reduced_to: 55
  - symbol: C  # 70
    coordinates: [  0.333311430244235,  0.000043923140005,  0.416666666790601 ]
    mass: 12.010700
    reduced_to: 55
  - symbol: C  # 71
    coordinates: [  0.666644763577569,  0.000043923140005,  0.416666666790601 ]
    mass: 12.010700
    reduced_to: 55
  - symbol: C  # 72
    coordinates: [  0.999978096910902,  0.000043923140005,  0.416666666790601 ]
    mass: 12.010700
    reduced_to: 55
  - symbol: C  # 73
    coordinates: [  0.333311430244235,  0.333377256473338,  0.750000000123934 ]
    mass: 12.010700
    reduced_to: 55
  - symbol: C  # 74
    coordinates: [  0.666644763577569,  0.333377256473338,  0.750000000123934 ]
    mass: 12.010700
    reduced_to: 55
  - symbol: C  # 75
    coordinates: [  0.999978096910902,  0.333377256473338,  0.750000000123934 ]
    mass: 12.010700
    reduced_to: 55
  - symbol: C  # 76
    coordinates: [  0.333311430244235,  0.666710589806672,  0.750000000123934 ]
    mass: 12.010700
    reduced_to: 55
  - symbol: C  # 77
    coordinates: [  0.666644763577569,  0.666710589806672,  0.750000000123934 ]
    mass: 12.010700
    reduced_to: 55
  - symbol: C  # 78
    coordinates: [  0.999978096910902,  0.666710589806672,  0.750000000123934 ]
    mass: 12.010700
    reduced_to: 55
  - symbol: C  # 79
    coordinates: [  0.333311430244235,  0.000043923140005,  0.750000000123934 ]
    mass: 12.010700
    reduced_to: 55
  - symbol: C  # 80
    coordinates: [  0.666644763577569,  0.000043923140005,  0.750000000123934 ]
    mass: 12.010700
    reduced_to: 55
  - symbol: C  # 81
    coordinates: [  0.999978096910902,  0.000043923140005,  0.750000000123934 ]
    mass: 12.010700
    reduced_to: 55
  - symbol: C  # 82
    coordinates: [  0.222201524854086,  0.222263673375267,  0.083333333457268 ]
    mass: 12.010700
    reduced_to: 82
  - symbol: C  # 83
    coordinates: [  0.555534858187419,  0.222263673375267,  0.083333333457268 ]
    mass: 12.010700
    reduced_to: 82
  - symbol: C  # 84
    coordinates: [  0.888868191520753,  0.222263673375267,  0.083333333457268 ]
    mass: 12.010700
    reduced_to: 82
  - symbol: C  # 85
    coordinates: [  0.222201524854086,  0.555597006708600,  0.083333333457268 ]
    mass: 12.010700
    reduced_to: 82
  - symbol: C  # 86
    coordinates: [  0.555534858187419,  0.555597006708600,  0.083333333457268 ]
    mass: 12.010700
    reduced_to: 82
  - symbol: C  # 87
    coordinates: [  0.888868191520753,  0.555597006708600,  0.083333333457268 ]
    mass: 12.010700
    reduced_to: 82
  - symbol: C  # 88
    coordinates: [  0.222201524854086,  0.888930340041934,  0.083333333457268 ]
    mass: 12.010700
    reduced_to: 82
  - symbol: C  # 89
    coordinates: [  0.555534858187419,  0.888930340041934,  0.083333333457268 ]
    mass: 12.010700
    reduced_to: 82
  - symbol: C  # 90
    coordinates: [  0.888868191520753,  0.888930340041934,  0.083333333457268 ]
    mass: 12.010700
    reduced_to: 82
  - symbol: C  # 91
    coordinates: [  0.222201524854086,  0.222263673375267,  0.416666666790601 ]
    mass: 12.010700
    reduced_to: 82
  - symbol: C  # 92
    coordinates: [  0.555534858187419,  0.222263673375267,  0.416666666790601 ]
    mass: 12.010700
    reduced_to: 82
  - symbol: C  # 93
    coordinates: [  0.888868191520753,  0.222263673375267,  0.416666666790601 ]
    mass: 12.010700
    reduced_to: 82
  - symbol: C  # 94
    coordinates: [  0.222201524854086,  0.555597006708600,  0.416666666790601 ]
    mass: 12.010700
    reduced_to: 82
  - symbol: C  # 95
    coordinates: [  0.555534858187419,  0.555597006708600,  0.416666666790601 ]
    mass: 12.010700
    reduced_to: 82
  - symbol: C  # 96
    coordinates: [  0.888868191520753,  0.555597006708600,  0.416666666790601 ]
    mass: 12.010700
    reduced_to: 82
  - symbol: C  # 97
    coordinates: [  0.222201524854086,  0.888930340041934,  0.416666666790601 ]
    mass: 12.010700
    reduced_to: 82
  - symbol: C  # 98
    coordinates: [  0.555534858187419,  0.888930340041934,  0.416666666790601 ]
    mass: 12.010700
    reduced_to: 82
  - symbol: C  # 99
    coordinates: [  0.888868191520753,  0.888930340041934,  0.416666666790601 ]
    mass: 12.010700
    reduced_to: 82
  - symbol: C  # 100
    coordinates: [  0.222201524854086,  0.222263673375267,  0.750000000123934 ]
    mass: 12.010700
    reduced_to: 82
  - symbol: C  # 101
    coordinates: [  0.555534858187419,  0.222263673375267,  0.750000000123934 ]
    mass: 12.010700
    reduced_to: 82
  - symbol: C  # 102
    coordinates: [  0.888868191520753,  0.222263673375267,  0.750000000123934 ]
    mass: 12.010700
    reduced_to: 82
  - symbol: C  # 103
    coordinates: [  0.222201524854086,  0.555597006708600,  0.750000000123934 ]
    mass: 12.010700
    reduced_to: 82
  - symbol: C  # 104
    coordinates: [  0.555534858187419,  0.555597006708600,  0.750000000123934 ]
    mass: 12.010700
    reduced_to: 82
  - symbol: C  # 105
    coordinates: [  0.888868191520753,  0.555597006708600,  0.750000000123934 ]
    mass: 12.010700
    reduced_to: 82
  - symbol: C  # 106
    coordinates: [  0.222201524854086,  0.888930340041934,  0.750000000123934 ]
    mass: 12.010700
    reduced_to: 82
  - symbol: C  # 107
    coordinates: [  0.555534858187419,  0.888930340041934,  0.750000000123934 ]
    mass: 12.010700
    reduced_to: 82
  - symbol: C  # 108
    coordinates: [  0.888868191520753,  0.888930340041934,  0.750000000123934 ]
    mass: 12.010700
    reduced_to: 82

displacements:
- atom:    1
  displacement:
    [   0.0034359995944422, -0.0000000028212665,  0.0093911610989795 ]
- atom:    1
  displacement:
    [  -0.0034359995944422,  0.0000000028212665, -0.0093911610989795 ]
- atom:    1
  displacement:
    [   0.0049999759378630,  0.0086602679300811,  0.0000000000000000 ]
- atom:    1
  displacement:
    [  -0.0049999759378630, -0.0086602679300811,  0.0000000000000000 ]
- atom:   28
  displacement:
    [   0.0034359995944422, -0.0000000028212665,  0.0093911610989795 ]
- atom:   28
  displacement:
    [  -0.0034359995944422,  0.0000000028212665, -0.0093911610989795 ]
- atom:   28
  displacement:
    [   0.0049999759378630,  0.0086602679300811,  0.0000000000000000 ]
- atom:   28
  displacement:
    [  -0.0049999759378630, -0.0086602679300811,  0.0000000000000000 ]
